ITEM: TIMESTEP
30000000
ITEM: NUMBER OF ATOMS
39800
ITEM: BOX BOUNDS pp pp pp
4.7375079211828933e+01 1.2362492078653906e+02
4.7375079211828933e+01 1.2362492078653906e+02
4.7375079211828933e+01 1.2362492078653906e+02
ITEM: ATOMS id mol type mass x y z
18913 96 5 32.064 51.3395 49.8176 53.1396
3462 18 34 1.00797 51.9682 51.2163 48.7228
662 4 32 14.0067 50.529 52.8622 53.1394
726 4 17 12.0112 53.9756 53.4071 53.7378
661 4 31 12.0112 49.537 53.1193 52.6766
727 4 33 1.00797 53.1481 52.6987 53.6993
734 4 33 1.00797 53.9485 51.3303 51.6737
18914 96 4 14.0067 51.2531 49.4431 54.7195
3437 18 27 18.998 52.4179 48.7911 48.9968
18912 96 4 14.0067 51.4619 48.3325 52.5547
3429 18 24 12.0112 52.5669 49.4297 47.8392
3430 18 25 12.0112 52.1659 50.748 47.7688
733 4 33 1.00797 54.3577 52.9217 51.0392
732 4 17 12.0112 54.7438 52.0723 51.6028
3442 18 29 12.0112 51.4229 53.639 48.4089
3443 18 30 14.0067 51.3008 53.4488 49.5349
725 4 33 1.00797 52.9815 54.464 52.1605
723 4 17 12.0112 53.4668 54.6596 53.1167
660 4 28 12.0112 48.274 53.5285 52.0669
671 4 33 1.00797 51.6849 54.9374 54.4106
30234 152 33 1.00797 54.9871 49.0931 54.0283
728 4 33 1.00797 54.1929 53.609 54.7867
18910 96 3 12.0112 51.3633 48.1276 54.8282
637 4 18 12.0112 47.9196 54.8521 51.7875
33543 169 33 1.00797 49.1762 49.5211 49.2552
33540 169 36 12.0112 48.5009 48.666 49.287
33541 169 33 1.00797 47.5447 49.0627 49.6284
33539 169 33 1.00797 49.035 47.9199 51.2317
33542 169 33 1.00797 48.441 48.1714 48.3176
33537 169 17 12.0112 49.0401 47.5689 50.1998
663 4 29 12.0112 47.4716 52.4702 51.9244
18911 96 3 12.0112 51.5338 47.4875 53.5555
33538 169 33 1.00797 50.0773 47.3982 49.9111
740 4 33 1.00797 55.1106 49.8597 49.6094
30235 152 33 1.00797 56.2764 48.177 54.8742
21347 108 27 18.998 55.0275 48.1908 51.265
729 4 17 12.0112 55.0662 52.5819 53.0547
730 4 33 1.00797 55.1821 51.6391 53.5891
739 4 33 1.00797 55.1029 51.5251 49.0356
738 4 17 12.0112 55.6722 50.7939 49.6095
30233 152 36 12.0112 55.6085 49.0371 54.9221
731 4 33 1.00797 56.0259 53.0982 53.0776
735 4 17 12.0112 55.9176 51.3718 50.9648
736 4 33 1.00797 56.3523 50.5642 51.5538
742 4 33 1.00797 57.6367 49.8901 49.1463
737 4 33 1.00797 56.6811 52.1392 50.8369
741 4 17 12.0112 57.0012 50.6759 48.7378
22992 116 33 1.00797 59.8333 49.4019 53.4677
743 4 33 1.00797 57.5957 51.5875 48.6775
3563 18 33 1.00797 58.065 53.7241 49.8537
37080 187 29 12.0112 62.1595 51.6794 49.1773
3565 18 33 1.00797 56.8576 54.8589 51.8019
3559 18 33 1.00797 55.6908 54.1262 49.5675
30236 152 33 1.00797 56.2747 49.8922 54.8072
22995 116 33 1.00797 59.2611 49.8864 55.7829
3567 18 36 12.0112 58.9351 54.6042 52.0147
3569 18 33 1.00797 58.6963 53.6144 52.4037
3561 18 17 12.0112 57.7378 54.7625 49.801
3568 18 33 1.00797 59.7338 54.4729 51.2847
35080 177 27 18.998 59.3849 53.3451 55.8215
37081 187 30 14.0067 62.1654 50.5821 49.5642
3558 18 17 12.0112 56.3616 54.861 49.1222
22993 116 36 12.0112 60.0265 49.128 55.6181
37077 187 28 12.0112 62.083 53.0147 48.7134
3555 18 17 12.0112 56.407 54.744 47.6295
22996 116 33 1.00797 60.9468 49.7035 55.7174
37054 187 18 12.0112 62.5387 54.1457 49.3885
21348 108 27 18.998 55.168 47.5618 48.7249
22990 116 17 12.0112 59.8609 48.647 54.2535
22991 116 33 1.00797 58.9135 48.1085 54.2316
22986 116 33 1.00797 60.6173 47.4816 51.6822
22988 116 33 1.00797 61.9491 48.2293 53.7091
22987 116 17 12.0112 60.9905 47.7229 53.8223
748 4 33 1.00797 57.3527 48.1718 47.3876
15709 79 33 1.00797 61.8563 52.9966 55.5015
37078 187 31 12.0112 61.1684 53.0758 47.5563
746 4 33 1.00797 55.6327 49.6118 47.4283
37095 187 34 1.00797 63.5852 51.9397 51.2873
37055 187 19 12.0112 63.2657 54.0563 50.7133
37065 187 25 12.0112 63.6924 52.9763 51.5746
37071 187 27 18.998 65.0706 52.2258 53.3311
23075 116 33 1.00797 64.6523 49.4031 49.1408
23074 116 33 1.00797 64.5148 48.57 50.6866
23073 116 17 12.0112 65.1234 48.6626 49.7871
22967 116 35 12.0112 67.6992 48.2473 50.1278
22997 116 17 12.0112 67.8606 48.5772 51.6764
22969 116 17 12.0112 68.224 49.5533 49.3786
32106 162 30 14.0067 66.0805 52.3267 49.6199
22999 116 33 1.00797 67.4589 49.5707 51.8757
22971 116 33 1.00797 67.5398 49.7924 48.5645
37064 187 24 12.0112 64.5118 53.2482 52.6726
32105 162 29 12.0112 66.025 53.1438 48.8352
22970 116 33 1.00797 68.2829 50.4245 50.0311
5152 26 33 1.00797 68.9145 51.8372 53.0289
5151 26 33 1.00797 69.4163 53.4225 53.6101
23000 116 36 12.0112 69.3242 48.7524 52.2604
37063 187 23 12.0112 64.827 54.5914 53.0078
32102 162 28 12.0112 65.7568 54.2311 47.9456
22955 116 33 1.00797 67.3387 47.7328 48.8803
23003 116 33 1.00797 69.3268 48.9461 53.3331
37070 187 27 18.998 65.6399 54.8285 54.071
22968 116 33 1.00797 68.6071 47.6246 50.14
22998 116 33 1.00797 67.289 47.8619 52.2677
5150 26 17 12.0112 69.6784 52.3645 53.6003
23081 116 33 1.00797 65.2645 47.48 47.964
23002 116 33 1.00797 69.9496 47.9081 51.9704
22972 116 17 12.0112 69.5824 49.353 48.7343
23001 116 33 1.00797 69.8088 49.6571 51.8931
5146 26 33 1.00797 67.6441 50.859 54.8871
5147 26 17 12.0112 69.5861 51.7612 55.0135
5145 26 33 1.00797 67.5502 52.5324 55.429
5148 26 33 1.00797 70.0778 50.8027 54.8474
5158 26 33 1.00797 70.1041 52.1837 50.9292
22974 116 33 1.00797 70.1652 49.0205 49.5933
15708 79 33 1.00797 62.8296 54.33 54.9651
22973 116 33 1.00797 69.4731 48.5055 48.0576
15706 79 36 12.0112 62.7107 53.6141 55.7784
15707 79 33 1.00797 63.619 53.0118 55.7943
5144 26 17 12.0112 68.1182 51.6068 55.5228
5149 26 33 1.00797 70.223 52.3528 55.671
32120 162 34 1.00797 65.3957 51.2033 47.4801
22975 116 17 12.0112 70.1911 50.5334 48.0043
22977 116 33 1.00797 69.5209 51.3809 47.8606
22976 116 33 1.00797 70.9911 50.8508 48.6731
5157 26 33 1.00797 70.3485 53.8531 51.4352
5156 26 17 12.0112 70.7841 52.8541 51.4549
5153 26 17 12.0112 71.0358 52.3734 52.9035
5154 26 33 1.00797 71.4014 51.3475 52.8579
5155 26 33 1.00797 71.7493 52.9557 53.4865
5162 26 33 1.00797 72.7941 52.105 50.7641
35642 180 11 32.064 74.3541 48.449 49.0936
35748 180 33 1.00797 75.252 51.5293 49.034
35749 180 33 1.00797 74.4767 53.0843 48.7456
35747 180 17 12.0112 74.9527 52.2337 48.2579
21148 107 27 18.998 75.1199 53.2598 54.5914
18004 91 33 1.00797 72.8097 48.0428 54.1086
17972 91 32 14.0067 76.8518 49.4999 50.9063
17971 91 31 12.0112 77.1178 48.4029 51.0468
17978 91 33 1.00797 76.7891 48.6653 53.3787
18003 91 36 12.0112 71.8496 47.7532 54.5357
5159 26 36 12.0112 72.1125 52.9499 50.6659
5160 26 33 1.00797 72.7323 53.6912 51.1704
5161 26 33 1.00797 71.908 53.1701 49.6182
34303 173 33 1.00797 77.1163 54.5984 52.3211
17938 91 15 12.0112 77.0135 48.0122 54.2091
17987 91 33 1.00797 77.0657 51.0931 54.0084
35695 180 33 1.00797 72.9474 51.4217 47.9542
17933 91 13 12.0112 76.6617 48.6647 55.4636
35753 180 17 12.0112 77.3915 52.979 48.1928
17945 91 17 12.0112 77.8224 50.9315 54.7761
18005 91 33 1.00797 71.3237 48.6697 54.8029
35754 180 33 1.00797 77.63 51.9385 48.413
35755 180 33 1.00797 77.2885 53.5053 49.1418
35655 180 17 12.0112 73.8703 51.5539 47.3896
21149 107 27 18.998 73.592 50.9725 54.8482
17932 91 12 12.0112 77.1188 49.9699 55.811
21140 107 24 12.0112 74.4944 53.0471 55.731
21139 107 23 12.0112 73.658 51.8577 55.8352
35641 180 10 12.0112 74.4462 48.9229 47.3815
35750 180 17 12.0112 76.0826 52.8217 47.4448
17986 91 33 1.00797 78.0137 51.8882 55.2621
18081 91 33 1.00797 79.4156 50.8646 50.3761
18084 91 33 1.00797 81.4426 49.2595 48.5744
18083 91 33 1.00797 80.0048 48.5321 49.2859
18080 91 33 1.00797 81.0286 51.3522 49.863
18075 91 33 1.00797 81.6319 51.8379 52.1211
18074 91 33 1.00797 81.8149 50.5641 53.3238
18077 91 33 1.00797 80.6107 48.9888 51.6702
18078 91 33 1.00797 82.0612 49.7784 51.0576
18079 91 17 12.0112 80.4129 50.4954 50.1368
18076 91 17 12.0112 81.0511 49.9557 51.4269
18073 91 17 12.0112 81.1375 50.9809 52.5785
18082 91 17 12.0112 80.4554 49.477 48.9819
18070 91 17 12.0112 80.0073 51.4061 53.466
18071 91 33 1.00797 80.3531 52.0958 54.236
18072 91 33 1.00797 79.3732 51.9655 52.7781
35771 180 17 12.0112 83.6663 53.0771 48.1155
18067 91 17 12.0112 79.1809 50.3641 54.2954
18068 91 33 1.00797 78.9149 49.4844 53.7092
35774 180 36 12.0112 84.542 51.9681 48.8316
35777 180 33 1.00797 85.282 52.3572 49.5309
35760 180 33 1.00797 80.0164 52.9008 48.5882
35768 180 17 12.0112 82.9009 53.9566 49.1286
35769 180 33 1.00797 82.1371 53.4387 49.7087
35759 180 17 12.0112 79.7725 53.8997 48.2264
18069 91 33 1.00797 79.7921 50.0327 55.1349
18087 91 33 1.00797 78.7359 50.1295 48.1181
18085 91 17 12.0112 79.7528 49.9239 47.7836
35776 180 33 1.00797 83.8805 51.2043 49.2404
16071 81 33 1.00797 80.3766 47.8708 55.2797
35775 180 33 1.00797 85.0857 51.3337 48.1316
35772 180 33 1.00797 84.2762 53.7119 47.4728
34302 173 33 1.00797 78.8152 54.7275 52.7679
35770 180 33 1.00797 83.617 54.3864 49.829
34293 173 32 14.0067 80.9676 54.8233 54.6737
35765 180 17 12.0112 82.1462 54.9951 48.3465
35761 180 33 1.00797 79.5935 54.534 49.0945
35762 180 17 12.0112 80.9611 54.572 47.4965
35773 180 33 1.00797 83.0819 52.4173 47.4742
2960 15 33 1.00797 86.3464 52.8608 53.0161
2959 15 33 1.00797 87.9229 52.7132 52.2444
2958 15 17 12.0112 87.3411 53.3022 52.9534
24460 123 33 1.00797 86.7387 48.7413 51.9198
2965 15 33 1.00797 86.4819 53.1021 55.6658
2962 15 33 1.00797 89.0841 53.4381 54.105
2961 15 17 12.0112 88.0796 53.0465 54.2655
4691 24 33 1.00797 90.4905 49.0482 49.4615
26323 133 27 18.998 88.7263 51.5408 49.5579
26313 133 23 12.0112 89.4915 52.5777 49.1516
26322 133 27 18.998 90.6256 52.5983 51.2037
26314 133 24 12.0112 90.4673 53.1475 50.0013
26315 133 25 12.0112 91.26 54.262 49.6506
4960 25 36 12.0112 91.7215 51.0058 54.0923
4962 25 33 1.00797 90.8026 51.2284 53.5499
26347 133 34 1.00797 92.0217 54.6591 50.3069
4961 25 33 1.00797 91.5798 50.876 55.1652
2954 15 33 1.00797 86.1728 54.5203 50.6293
2964 15 17 12.0112 87.3712 53.7007 55.4686
4663 24 33 1.00797 88.8252 50.1909 47.66
2963 15 33 1.00797 88.1559 51.9636 54.3633
4765 24 17 12.0112 87.3192 48.2422 48.0942
4963 25 33 1.00797 92.3595 51.8895 54.096
4959 25 33 1.00797 91.8606 49.1289 52.9907
4955 25 33 1.00797 92.7019 50.8058 51.4761
24458 123 33 1.00797 88.5188 48.3799 53.4452
4957 25 17 12.0112 92.5592 49.9051 53.3028
4689 24 17 12.0112 90.4012 48.1171 48.9019
24454 123 33 1.00797 86.758 49.593 54.9408
24453 123 17 12.0112 87.1415 48.5818 55.0773
26305 133 19 12.0112 90.9151 54.9052 48.4178
26312 133 22 12.0112 89.2589 53.1813 47.9246
4767 24 33 1.00797 86.6718 49.0371 47.7239
2966 15 33 1.00797 87.0528 54.7331 55.3245
4659 24 35 12.0112 89.6647 48.3287 47.4462
4766 24 33 1.00797 87.133 48.1312 49.1624
4695 24 33 1.00797 92.4265 48.2692 48.2032
2953 15 33 1.00797 87.932 54.4383 50.5978
2955 15 17 12.0112 87.1768 54.778 52.5563
2952 15 17 12.0112 87.0833 54.998 50.991
26306 133 20 12.0112 89.9323 54.3467 47.5559
4662 24 33 1.00797 90.5674 50.3321 47.8771
24456 123 17 12.0112 87.6026 47.8907 53.776
24459 123 17 12.0112 86.6499 47.8611 52.5566
24461 123 33 1.00797 85.6416 47.8494 52.9703
4694 24 33 1.00797 92.1624 47.5201 49.7268
4690 24 33 1.00797 89.7398 47.4547 49.4605
4692 24 36 12.0112 91.752 47.5858 48.7191
24452 123 33 1.00797 89.1687 48.9826 55.6773
24455 123 33 1.00797 86.3847 48.0077 55.6118
4954 25 17 12.0112 93.421 50.3998 52.1874
4958 25 33 1.00797 93.1984 49.4855 54.0796
4956 25 33 1.00797 94.0586 51.2186 52.5208
24409 123 33 1.00797 95.3253 52.9511 47.758
4949 25 33 1.00797 94.0993 49.8639 49.4435
4953 25 33 1.00797 93.7782 48.4008 51.3533
4951 25 17 12.0112 94.306 49.3336 51.5522
24299 123 11 32.064 96.7626 53.4394 51.4907
24287 123 4 14.0067 95.8506 51.3136 54.3337
24282 123 1 12.0112 95.4065 53.8084 54.0321
24291 123 6 12.0112 95.881 54.1772 52.7904
24352 123 33 1.00797 97.8524 53.6069 48.7144
4948 25 17 12.0112 94.913 49.7204 50.1543
6003 31 17 12.0112 99.7597 48.6401 54.7483
6169 31 33 1.00797 97.7759 48.9171 53.9612
24283 123 3 12.0112 95.3519 52.4918 54.7286
5976 31 3 12.0112 99.1239 54.03 54.9393
5973 31 2 12.0112 99.7481 51.2858 54.7918
5975 31 3 12.0112 99.8501 53.5808 53.8464
5985 31 8 14.0067 100.1 50.0193 54.2879
4950 25 33 1.00797 95.4635 50.6586 50.2245
4945 25 17 12.0112 95.7888 48.6388 49.4551
4946 25 33 1.00797 96.7635 48.5328 49.9312
5974 31 1 12.0112 100.207 52.2059 53.8323
5979 31 4 14.0067 100.263 54.5425 53.0661
24312 123 17 12.0112 97.5162 54.5412 48.2648
4952 25 33 1.00797 95.1637 49.103 52.1841
24281 123 2 12.0112 94.905 54.9938 54.7007
6167 31 17 12.0112 98.5508 48.1505 53.9702
6168 31 33 1.00797 98.8882 48.0058 52.9439
3279 17 33 1.00797 99.7437 50.8735 47.9458
6071 31 33 1.00797 95.2016 47.7628 54.1192
3277 17 36 12.0112 100.438 51.6988 48.1038
24408 123 33 1.00797 94.9113 54.5997 48.2197
24407 123 17 12.0112 95.2254 53.971 47.3866
4942 25 17 12.0112 95.9411 48.7707 47.9475
3280 17 33 1.00797 99.8669 52.2515 48.8499
4943 25 33 1.00797 94.9179 48.8468 47.5794
4944 25 33 1.00797 96.4727 49.6721 47.6426
6043 31 33 1.00797 100.568 47.9086 54.76
24286 123 5 32.064 95.4666 50.1984 55.4672
4947 25 33 1.00797 95.253 47.6978 49.5798
6090 31 33 1.00797 96.6547 47.6098 51.9426
6042 31 33 1.00797 99.4435 48.8039 55.7785
5984 31 7 12.0112 101.031 50.1502 53.355
5983 31 6 12.0112 101.1 51.508 53.0079
5989 31 9 12.0112 101.814 49.3154 52.5518
5991 31 11 32.064 102.183 51.7895 51.6868
3296 17 17 12.0112 104.453 53.4756 48.3289
5990 31 10 12.0112 102.534 50.0446 51.5287
6099 31 17 12.0112 106.42 49.8578 51.2292
6044 31 33 1.00797 103.702 50.5331 49.1038
6096 31 17 12.0112 105.471 50.6147 50.2736
6097 31 33 1.00797 105.083 51.5851 50.5827
6004 31 17 12.0112 104.313 49.8314 49.6721
5995 31 12 12.0112 103.329 49.246 50.7013
3298 17 33 1.00797 103.554 52.9538 48.6568
6045 31 33 1.00797 104.674 49.0686 48.9819
171 1 33 1.00797 104.401 51.1094 53.6002
3297 17 33 1.00797 105.309 52.9948 48.8026
6101 31 33 1.00797 105.937 49.6179 52.1764
6100 31 33 1.00797 106.727 48.9206 50.7652
177 1 33 1.00797 104.684 48.4375 53.8535
165 1 33 1.00797 103.554 53.511 53.8376
6098 31 33 1.00797 106.062 50.7646 49.3697
6103 31 33 1.00797 107.384 51.3716 52.3452
169 1 17 12.0112 104.64 51.1882 54.6606
164 1 33 1.00797 104.928 53.8631 54.8818
6102 31 17 12.0112 107.626 50.6392 51.5751
175 1 17 12.0112 105.229 48.627 54.7783
176 1 33 1.00797 106.244 48.9224 54.5125
6104 31 33 1.00797 107.967 51.1825 50.6937
163 1 17 12.0112 103.852 53.6864 54.8711
170 1 33 1.00797 105.656 51.5743 54.7453
3257 17 33 1.00797 108.11 54.6201 49.5881
3217 17 17 12.0112 108.148 54.6126 48.4988
3299 17 36 12.0112 104.532 54.9548 48.887
3300 17 33 1.00797 104.472 54.7252 49.9508
3256 17 33 1.00797 107.313 54.0096 48.1406
6035 31 32 14.0067 106.905 47.8475 48.154
3273 17 33 1.00797 101.874 54.2398 47.642
166 1 17 12.0112 103.707 52.179 55.348
172 1 17 12.0112 104.455 49.7964 55.4042
167 1 33 1.00797 102.726 51.831 55.026
161 1 33 1.00797 101.836 54.1519 55.6036
160 1 17 12.0112 102.853 54.5435 55.634
5996 31 13 12.0112 103.397 47.8873 51.1848
5997 31 14 32.064 102.195 47.6376 52.4788
6039 31 33 1.00797 105.113 47.585 50.2158
3278 17 33 1.00797 101.401 51.4217 48.5326
173 1 33 1.00797 103.411 49.4841 55.435
15446 78 33 1.00797 108.259 49.6238 55.7532
15448 78 33 1.00797 108.424 51.2726 55.557
6107 31 33 1.00797 108.44 49.2313 53.0916
3376 17 33 1.00797 109.429 52.1398 48.568
3308 17 33 1.00797 111.004 49.0342 48.5535
6105 31 17 12.0112 108.708 49.7001 52.1449
3377 17 33 1.00797 110.159 53.0162 49.9103
6106 31 33 1.00797 108.973 48.9082 51.4442
6110 31 33 1.00797 110.344 51.1226 51.4792
6109 31 33 1.00797 109.628 51.4114 53.0626
6108 31 17 12.0112 109.953 50.6335 52.3717
3285 17 33 1.00797 112.554 54.0505 49.4379
3375 17 17 12.0112 110.137 52.9279 48.8241
3283 17 17 12.0112 112.697 52.9701 49.46
3284 17 33 1.00797 112.514 52.6307 50.4796
6111 31 17 12.0112 111.103 49.9835 53.0266
13694 69 33 1.00797 109.772 54.2156 53.9573
3281 17 35 12.0112 111.601 52.5728 48.4106
3286 17 17 12.0112 114.21 52.7244 49.1325
13692 69 17 12.0112 110.812 54.4 54.2261
13693 69 33 1.00797 111.44 53.8655 53.5134
3289 17 17 12.0112 115.216 52.802 50.3075
3288 17 33 1.00797 114.174 51.7109 48.7329
6114 31 17 12.0112 112.387 50.7647 53.1278
6112 31 33 1.00797 111.334 49.0431 52.5258
6113 31 33 1.00797 110.768 49.7495 54.0371
6116 31 33 1.00797 112.693 50.901 52.0906
3287 17 33 1.00797 114.532 53.3879 48.33
6118 31 33 1.00797 113.824 49.3047 53.644
3291 17 33 1.00797 114.989 52.1281 51.1336
6115 31 33 1.00797 112.147 51.7465 53.5361
6122 31 33 1.00797 114.754 51.6466 53.777
6117 31 17 12.0112 113.316 50.1481 54.1114
3292 17 36 12.0112 115.461 54.2755 50.7264
3295 17 33 1.00797 115.607 54.9085 49.851
3294 17 33 1.00797 114.641 54.6494 51.3384
6120 31 17 12.0112 114.376 51.113 54.649
3381 17 17 12.0112 109.566 54.1737 48.0429
3307 17 33 1.00797 111.75 50.0485 49.8769
3382 17 33 1.00797 110.253 54.991 48.2637
3309 17 33 1.00797 110.051 50.222 49.3214
3303 17 17 12.0112 111.625 51.1286 47.9796
3306 17 36 12.0112 111.078 50.0169 49.0191
6121 31 33 1.00797 113.919 51.8447 55.3147
13697 69 33 1.00797 110.988 52.7091 55.6839
6119 31 33 1.00797 112.644 49.7519 54.8733
13695 69 17 12.0112 111.136 53.7882 55.6433
13696 69 33 1.00797 112.195 53.9855 55.8106
15403 78 34 1.00797 115.733 54.0762 55.3254
32393 163 33 1.00797 115.967 49.7592 49.5501
3304 17 33 1.00797 112.653 50.8701 47.7238
6123 31 36 12.0112 115.41 50.2464 55.4942
6124 31 33 1.00797 115.658 49.308 54.9982
3282 17 33 1.00797 111.793 53.2445 47.5596
33628 169 33 1.00797 123.234 49.4848 54.3258
3290 17 33 1.00797 116.235 52.5962 49.9801
3293 17 33 1.00797 116.299 54.3438 51.4205
32392 163 33 1.00797 117.187 50.593 50.4078
32391 163 36 12.0112 116.977 49.6312 49.9396
32394 163 33 1.00797 117.65 49.5511 49.0853
32390 163 33 1.00797 116.39 48.7392 51.8085
13212 67 34 1.00797 121.288 49.875 48.1334
33626 169 17 12.0112 122.57 48.6268 54.4263
664 4 30 14.0067 123.066 51.5422 51.7129
33526 169 33 1.00797 118.377 53.1093 54.7856
33528 169 33 1.00797 117.821 54.0453 53.409
33527 169 33 1.00797 116.805 52.7242 53.9785
33525 169 36 12.0112 117.837 53.0445 53.8406
33620 169 17 12.0112 121.443 48.6357 53.4799
33622 169 33 1.00797 121.342 49.4181 52.7276
678 4 34 1.00797 121.499 53.3759 50.9418
33522 169 17 12.0112 118.663 52.0086 52.9436
33520 169 33 1.00797 117.688 50.2956 53.6721
33519 169 17 12.0112 118.727 50.6274 53.6866
33521 169 33 1.00797 119.292 49.9807 53.016
33524 169 33 1.00797 119.676 52.3936 52.8252
33621 169 33 1.00797 121.277 47.6772 52.988
33523 169 33 1.00797 118.178 52.0407 51.9679
33546 169 33 1.00797 117.832 48.8847 55.3941
13178 67 22 12.0112 121.129 48.9212 47.6437
33544 169 17 12.0112 118.739 48.2796 55.369
33503 169 33 1.00797 120.805 48.1336 55.5456
648 4 25 12.0112 121.608 54.4512 50.9576
654 4 27 18.998 119.278 54.4051 50.2513
32388 163 17 12.0112 117.175 48.5969 51.0662
32389 163 33 1.00797 118.114 48.9341 51.5055
33514 169 35 12.0112 120.019 49.2398 55.513
33516 169 17 12.0112 119.365 50.6066 55.1238
33502 169 33 1.00797 121.292 49.8264 55.5532
13189 67 27 18.998 121.559 47.6278 49.5191
13179 67 23 12.0112 121.09 47.6769 48.2681
33627 169 33 1.00797 123.186 47.7278 54.4394
33484 169 26 15.9994 121.13 54.118 54.8746
33464 169 17 12.0112 121.65 48.8063 55.6926
33517 169 33 1.00797 120.119 51.3862 55.0159
33545 169 33 1.00797 118.785 47.7891 54.3967
33518 169 33 1.00797 118.625 50.9562 55.8436
13225 67 33 1.00797 119.297 53.7841 47.5934
6126 31 33 1.00797 116.327 50.791 55.7179
33456 169 14 32.064 123.135 51.9827 55.802
13230 67 33 1.00797 117.293 52.9706 47.4065
666 4 33 1.00797 50.3162 55.2932 52.5737
724 4 33 1.00797 54.3676 55.2411 52.9204
631 4 17 12.0112 52.5361 55.4667 53.9825
672 4 33 1.00797 53.1727 55.794 54.8045
627 4 15 12.0112 49.8683 56.2737 52.5086
34880 176 27 18.998 51.8723 57.8619 49.6662
34870 176 23 12.0112 52.9831 58.4567 50.1412
622 4 12 12.0112 52.0674 56.8702 53.5896
623 4 13 12.0112 50.8477 57.1665 52.8709
624 4 14 32.064 50.6225 58.9989 52.8331
616 4 9 12.0112 52.0449 59.278 53.6976
611 4 7 12.0112 52.7223 60.4616 54.0759
617 4 10 12.0112 52.7416 58.1064 53.9282
34869 176 22 12.0112 53.0235 59.828 49.9302
610 4 6 12.0112 53.9825 60.2044 54.5569
601 4 1 12.0112 54.6048 61.4496 54.8085
795 4 33 1.00797 51.6955 61.9099 51.4487
618 4 11 32.064 54.3486 58.462 54.5573
34903 176 34 1.00797 52.19 60.2902 49.4137
612 4 8 14.0067 52.4394 61.7809 54.0849
670 4 33 1.00797 50.423 61.4321 53.5068
695 4 33 1.00797 49.3333 61.2844 51.1786
34863 176 20 12.0112 54.1463 60.4858 50.4759
716 4 17 12.0112 49.4907 61.9105 49.2913
694 4 35 12.0112 49.0295 62.2449 50.7342
34864 176 21 12.0112 54.4238 61.9151 50.345
718 4 33 1.00797 50.5716 61.8973 49.1511
630 4 17 12.0112 51.1569 62.2381 53.5107
600 4 2 12.0112 53.6138 62.4472 54.5413
628 4 16 12.0112 48.6111 56.124 51.9644
34871 176 24 12.0112 54.0226 57.7717 50.7836
34879 176 27 18.998 53.8788 56.4569 50.9426
717 4 33 1.00797 49.0948 60.9659 48.9184
33492 169 30 14.0067 48.1724 60.3944 54.8384
33491 169 29 12.0112 48.1329 59.2523 55.0991
650 4 26 15.9994 48.0323 58.3502 51.2083
640 4 21 12.0112 47.7015 57.19 51.4664
696 4 17 12.0112 47.4966 62.4561 50.9421
33490 169 28 12.0112 48.0927 57.8231 55.4222
3564 18 17 12.0112 57.7218 55.2364 51.2552
3570 18 33 1.00797 59.361 55.2167 52.8093
3562 18 33 1.00797 58.4605 55.3093 49.1954
3566 18 33 1.00797 57.7294 56.322 51.3525
3560 18 33 1.00797 56.0107 55.8514 49.4123
34862 176 19 12.0112 55.1176 59.8313 51.285
34872 176 25 12.0112 55.0699 58.449 51.3868
34904 176 34 1.00797 55.7547 57.795 51.9084
602 4 3 12.0112 55.8913 61.7083 55.2321
23233 117 33 1.00797 59.952 60.7766 48.1465
34861 176 18 12.0112 56.1404 60.8533 51.6149
34884 176 29 12.0112 57.6366 59.2497 52.6896
34885 176 30 14.0067 57.9071 58.2288 53.1386
34883 176 28 12.0112 57.4169 60.4689 52.0548
34886 176 31 12.0112 58.553 61.3516 52.0894
23231 117 17 12.0112 58.9626 60.9754 48.5584
23232 117 33 1.00797 59.047 60.9706 49.6451
23237 117 36 12.0112 58.1848 58.3512 48.4802
23236 117 33 1.00797 57.0266 60.1219 48.4123
23234 117 17 12.0112 58.0162 59.808 48.0801
23238 117 33 1.00797 57.9972 58.3242 49.5536
35132 177 36 12.0112 61.7198 59.8786 54.6563
35135 177 33 1.00797 62.1798 59.7464 53.677
35134 177 33 1.00797 60.6656 60.1273 54.534
35133 177 33 1.00797 62.1027 60.7971 55.1011
34854 176 16 12.0112 55.6011 62.144 51.1848
34887 176 32 14.0067 59.4526 62.0647 52.2039
23228 117 17 12.0112 58.5332 62.373 48.3358
37044 187 15 12.0112 61.9235 56.1955 47.8059
37137 187 33 1.00797 62.3529 62.401 53.667
606 4 4 14.0067 56.9222 60.8927 55.5364
23230 117 33 1.00797 57.5055 62.4817 48.6825
35129 177 17 12.0112 61.7645 58.6043 55.5024
35130 177 33 1.00797 61.3827 57.7186 54.9947
37045 187 16 12.0112 62.4799 55.6098 48.9584
23240 117 33 1.00797 57.4867 57.6553 48.0148
23239 117 33 1.00797 59.1776 57.9206 48.3499
35131 177 33 1.00797 62.7961 58.4038 55.7918
37212 187 33 1.00797 62.6772 61.008 49.0995
37056 187 20 12.0112 63.5426 55.3945 51.1432
37062 187 22 12.0112 64.2762 55.6253 52.305
32168 162 17 12.0112 68.3125 59.417 47.9741
37067 187 26 15.9994 63.0503 57.5738 50.3068
32103 162 31 12.0112 66.0677 55.4884 48.6191
37057 187 21 12.0112 63.0201 56.3593 50.159
37112 187 33 1.00797 63.1929 60.9757 51.7025
37094 187 34 1.00797 64.5423 56.668 52.4353
37117 187 33 1.00797 65.8862 59.2183 51.433
32173 162 33 1.00797 67.7179 60.8077 49.4743
32171 162 17 12.0112 68.3061 59.8909 49.4338
37116 187 17 12.0112 65.377 59.3311 52.3901
37119 187 17 12.0112 66.3103 58.6986 53.4812
37118 187 33 1.00797 64.4203 58.8132 52.3216
32172 162 33 1.00797 67.9394 59.2251 50.2151
32104 162 32 14.0067 66.4036 56.5126 49.0866
37113 187 17 12.0112 65.2586 60.8232 52.5391
37207 187 33 1.00797 64.8509 60.6257 49.8497
37111 187 35 12.0112 64.1463 61.5248 51.6607
32179 162 33 1.00797 69.0791 60.6528 51.8407
37121 187 33 1.00797 66.6145 57.6987 53.1718
37120 187 33 1.00797 67.2105 59.3053 53.5796
37041 187 14 32.064 62.7552 58.9218 47.6857
37114 187 33 1.00797 65.1471 61.146 53.5742
32178 162 33 1.00797 69.7235 59.0143 51.7876
32166 162 33 1.00797 66.3554 58.6663 47.9639
37123 187 33 1.00797 65.1752 59.3159 55.1656
37115 187 33 1.00797 66.2225 61.1834 52.1797
32174 162 17 12.0112 69.7091 60.2683 49.9422
32177 162 17 12.0112 69.8716 60.0311 51.424
37205 187 17 12.0112 64.4779 61.6039 50.153
37047 187 17 12.0112 63.752 62.2867 47.7688
37122 187 36 12.0112 65.6437 58.3979 54.8108
37125 187 33 1.00797 64.8345 57.668 54.833
37124 187 33 1.00797 66.3738 58.1993 55.5954
37211 187 17 12.0112 63.3262 61.881 49.1695
37206 187 33 1.00797 65.2252 62.3467 49.874
32175 162 33 1.00797 69.9012 61.3252 49.7571
32170 162 33 1.00797 68.8477 58.4797 48.1264
32167 162 33 1.00797 66.3995 60.378 47.5508
37087 187 33 1.00797 64.4347 61.4908 47.4712
32165 162 17 12.0112 66.8962 59.4207 47.3926
34371 173 33 1.00797 70.9103 55.8238 53.9732
34373 173 33 1.00797 71.4114 57.9242 55.1978
34370 173 33 1.00797 72.4788 55.1414 54.3935
34356 173 33 1.00797 77.3383 55.4827 54.4535
34237 173 4 14.0067 72.7587 55.167 47.9931
34367 173 33 1.00797 72.4074 56.2048 52.1238
34369 173 17 12.0112 71.9333 56.0746 54.2534
32185 162 33 1.00797 70.5661 61.2125 53.7981
32176 162 33 1.00797 70.5106 59.697 49.4739
32184 162 33 1.00797 70.9896 59.5118 53.622
34362 173 33 1.00797 75.0247 55.4625 52.7989
34368 173 33 1.00797 71.9534 57.7396 52.8592
34361 173 33 1.00797 74.7239 56.0183 54.4431
34249 173 11 32.064 75.6514 55.6744 49.9188
32183 162 17 12.0112 71.3336 60.5291 53.4348
32180 162 17 12.0112 71.2518 60.542 51.913
34358 173 33 1.00797 76.35 57.5729 52.4772
34364 173 33 1.00797 74.06 57.8827 52.1624
32182 162 33 1.00797 72.0333 59.8285 51.6515
34242 173 7 12.0112 76.6098 57.2429 48.1187
18449 93 17 12.0112 74.3569 60.857 49.1754
18455 93 17 12.0112 75.9832 60.7029 51.0967
34357 173 17 12.0112 76.3622 57.0073 53.4089
34360 173 17 12.0112 74.9947 56.3444 53.4389
34363 173 17 12.0112 73.9553 57.4183 53.1429
34241 173 6 12.0112 75.4711 56.5541 48.4495
18451 93 33 1.00797 73.6718 60.1376 49.6239
18450 93 33 1.00797 75.1303 60.2974 48.6492
32186 162 17 12.0112 72.6679 60.9099 54.0512
18457 93 33 1.00797 75.2881 59.9872 51.5358
18452 93 17 12.0112 75.1529 61.7018 50.1899
32181 162 33 1.00797 71.507 61.4981 51.456
34248 173 10 12.0112 77.2941 56.2412 50.0956
18456 93 33 1.00797 76.5936 60.1701 50.3676
32188 162 33 1.00797 73.4458 60.2602 53.6501
18458 93 17 12.0112 76.8175 61.269 52.2078
34366 173 17 12.0112 72.5213 56.8224 53.0147
18446 93 17 12.0112 73.6486 61.6671 48.108
34426 173 33 1.00797 77.4687 59.912 48.2998
34365 173 33 1.00797 74.0213 58.206 53.8934
32187 162 33 1.00797 72.9073 61.9335 53.763
18453 93 33 1.00797 74.5555 62.3961 50.7808
18463 93 33 1.00797 77.645 59.4859 52.834
34247 173 9 12.0112 77.6358 57.0722 49.0557
34354 173 17 12.0112 77.5686 56.1684 53.6382
34359 173 33 1.00797 76.4299 57.7202 54.2306
18454 93 33 1.00797 75.837 62.2888 49.5771
18460 93 33 1.00797 77.2253 62.1246 51.6694
34372 173 17 12.0112 71.8208 56.959 55.496
34374 173 33 1.00797 72.8501 57.1186 55.8171
18447 93 33 1.00797 72.7559 62.0812 48.5767
18448 93 33 1.00797 74.2624 62.5003 47.7658
18459 93 33 1.00797 76.2001 61.6505 53.021
32189 162 17 12.0112 72.6886 60.6938 55.56
32195 162 33 1.00797 74.6712 61.259 55.6323
32190 162 33 1.00797 72.6838 59.6104 55.6792
34232 173 1 12.0112 74.5699 56.7216 47.3761
35766 180 33 1.00797 81.7509 55.7829 48.9876
34262 173 17 12.0112 77.95 55.2932 52.4222
34253 173 12 12.0112 78.2425 56.0152 51.1294
34355 173 33 1.00797 78.4705 56.7174 53.9092
18461 93 36 12.0112 78.0601 60.454 52.5539
18464 93 33 1.00797 78.5611 60.974 53.3705
18462 93 33 1.00797 78.746 60.4021 51.7084
34349 173 33 1.00797 78.9467 61.1762 49.6075
34347 173 17 12.0112 79.8504 61.5155 49.1012
34292 173 31 12.0112 81.7786 55.6372 54.279
34254 173 13 12.0112 79.442 56.7413 50.8259
34291 173 28 12.0112 82.7782 56.5755 53.8678
34255 173 14 32.064 79.2822 57.6063 49.2778
34297 173 33 1.00797 80.324 56.307 52.5728
34258 173 15 12.0112 80.609 56.7621 51.6358
34259 173 16 12.0112 81.9235 57.3349 51.597
34270 173 20 12.0112 83.7574 58.7375 51.0524
34271 173 21 12.0112 82.4375 58.2823 50.5688
34281 173 26 15.9994 81.9492 58.7235 49.4932
34268 173 18 12.0112 82.8976 57.2714 52.6849
34269 173 19 12.0112 84.0633 58.095 52.2682
34308 173 34 1.00797 84.3731 60.2313 49.5498
34276 173 22 12.0112 84.6772 59.6609 50.42
34294 173 29 12.0112 83.7549 56.7015 54.9283
34348 173 33 1.00797 80.7043 61.0594 49.6023
2104 11 33 1.00797 83.1289 62.2592 54.2528
34279 173 25 12.0112 85.2972 58.4059 52.8911
2108 11 33 1.00797 82.1157 61.0648 52.6577
34332 173 33 1.00797 82.4335 61.8107 48.2011
2105 11 36 12.0112 82.7114 61.8776 52.2422
2106 11 33 1.00797 83.7119 61.5062 52.0206
34337 173 33 1.00797 85.1677 61.3552 47.853
2107 11 33 1.00797 82.3106 62.3092 51.3251
2075 11 33 1.00797 85.1767 62.4585 53.8755
18215 92 33 1.00797 79.4413 59.1889 55.7329
18219 92 33 1.00797 79.3392 61.6552 55.3351
34295 173 30 14.0067 84.5459 56.7801 55.8021
34326 173 33 1.00797 80.2703 59.9426 47.7446
34325 173 35 12.0112 79.9122 60.9804 47.6605
35767 180 33 1.00797 82.8755 55.447 47.6742
34331 173 33 1.00797 82.5841 60.1783 47.5569
2956 15 33 1.00797 86.3226 55.2417 53.0496
34309 173 34 1.00797 85.6545 58.0793 53.8577
34277 173 23 12.0112 85.9217 59.8647 50.9935
26304 133 18 12.0112 91.537 56.0523 47.7579
24395 123 33 1.00797 92.4851 55.5824 53.3448
24394 123 33 1.00797 90.9764 55.0415 53.5755
2950 15 33 1.00797 86.0408 56.851 50.4454
34278 173 24 12.0112 86.2343 59.2122 52.1921
2957 15 33 1.00797 88.0716 55.3226 52.8575
24396 123 33 1.00797 91.3557 56.1319 52.1681
24393 123 36 12.0112 91.4663 55.9548 53.238
2951 15 33 1.00797 87.5981 57.0205 51.2509
34284 173 27 18.998 86.7899 60.6436 50.3728
34285 173 27 18.998 87.4762 59.2853 52.7065
2947 15 33 1.00797 88.7885 56.3464 49.3718
2949 15 17 12.0112 87.0719 56.4975 50.4523
2946 15 17 12.0112 87.7995 56.7307 49.1222
24392 123 33 1.00797 90.1695 57.4541 53.7572
2945 15 33 1.00797 88.2129 58.778 49.6631
2848 15 32 14.0067 90.2035 58.7695 51.3229
24390 123 17 12.0112 91.1653 57.1792 54.1049
2847 15 31 12.0112 91.0585 59.5451 51.3971
2854 15 33 1.00797 90.1462 60.2511 49.2469
24364 123 33 1.00797 89.3119 56.3579 55.4402
2844 15 28 12.0112 92.0838 60.5073 51.2512
2814 15 15 12.0112 90.3966 61.0426 48.5561